# LAMMPS data file.
# 2022-06-02 CDT 13:42:29 , timestamp = 1654195349.3583453

 6 atoms
 4 bonds
 2 angles
 2 atom types
 1 bond types
 1 angle types
 0.0000000 7.7370574  xlo xhi
 0.0000000 4.4669922  ylo yhi
 0.0000000 10.9418515  zlo zhi
# 0.0000000 0.0000000 0.0000000  xy xz yz

 Masses

1 1.008  # H
2 15.9994  # O

 Atoms # full

1 1 2 -1.112800 0.000000 0.000000 0.000000
2 1 1 0.556400 -0.031617 -0.008284 0.956645
3 1 1 0.556400 -0.918177 -0.002919 -0.270497
4 2 2 -1.112800 -0.000016 0.000001 2.735019
5 2 1 0.556400 -0.475553 0.755932 3.079467
6 2 1 0.556400 -0.478065 -0.757946 3.071528

 Bonds

1 1 1 2
2 1 1 3
3 1 4 5
4 1 4 6

 Angles

1 1 2 1 3
2 1 5 4 6
