ITEM: TIMESTEP
0
ITEM: NUMBER OF ATOMS
4
ITEM: BOX BOUNDS pp pp pp
0.0 4.08
0.0 4.08
0.0 4.08
ITEM: ATOMS id type x y z
1 1 0.0 0.0 0.0
2 1 2.04 2.04 0.0
3 1 0.0 2.04 2.04
4 1 2.04 0.0 2.04
ITEM: TIMESTEP
1000
ITEM: NUMBER OF ATOMS
4
ITEM: BOX BOUNDS xy xz yz pp pp pp
0.0 6.08 0.0
0.0 6.08 0.0
0.0 6.08 0.0
ITEM: ATOMS id type x y z
1 1 0.0 0.0 0.0
2 1 3.04 3.04 0.0
3 1 0.0 3.04 3.04
4 1 3.04 0.0 3.04
ITEM: TIMESTEP
2000
ITEM: NUMBER OF ATOMS
4
ITEM: BOX BOUNDS pp pp pp
0.0 4.08
0.0 4.08
0.0 4.08
ITEM: ATOMS id type x y z
1 1 0.0 0.0 0.0
2 1 2.04 2.04 0.0
3 1 0.0 2.04 2.04
4 1 2.04 0.0 2.04
ITEM: TIMESTEP
3000
ITEM: NUMBER OF ATOMS
4
ITEM: BOX BOUNDS pp pp pp
0.0 8.08
0.0 8.08
0.0 8.08
ITEM: ATOMS id type x y z
1 1 0.0 0.0 0.0
2 1 4.04 4.04 0.0
3 1 0.0 4.04 4.04
4 1 4.04 0.0 4.04
